# vtk DataFile Version 3.0
Particle data
ASCII
DATASET POLYDATA
POINTS 4 float
   0.339826E+01   0.187092E+01   0.000000E+00
   0.344545E+01   0.187092E+01   0.000000E+00
   0.339826E+01   0.183191E+01   0.000000E+00
   0.344545E+01   0.183191E+01   0.000000E+00
POINT_DATA 4
VECTORS velocity float
   0.690251-309   0.690251-309   0.000000E+00
   0.000000E+00   0.000000E+00   0.000000E+00
   0.170000E+01   0.180000E+01   0.000000E+00
   0.190000E+01   0.200000E+01   0.000000E+00
SCALARS volume float 1
LOOKUP_TABLE default
   0.100000E-11
   0.100000E-11
   0.100000E-11
   0.100000E-11
TENSORS stress float
   0.000000E+00   0.135549E+05   0.000000E+00
   0.135549E+05   0.320198E+04   0.000000E+00
   0.000000E+00   0.000000E+00   0.000000E+00
   0.000000E+00   0.389970E+05   0.000000E+00
   0.389970E+05   0.318937E+04   0.000000E+00
   0.000000E+00   0.000000E+00   0.000000E+00
   0.000000E+00   0.529496E+06   0.000000E+00
   0.529496E+06   0.347133E+04   0.000000E+00
   0.000000E+00   0.000000E+00   0.000000E+00
   0.000000E+00   0.610898E+06   0.000000E+00
   0.610898E+06   0.346709E+04   0.000000E+00
   0.000000E+00   0.000000E+00   0.000000E+00
