# vtk DataFile Version 3.0
Particle data
ASCII
DATASET POLYDATA
POINTS 4 float
   0.313704E+01   0.188154E+01   0.000000E+00
   0.318430E+01   0.188154E+01   0.000000E+00
   0.313704E+01   0.184243E+01   0.000000E+00
   0.318430E+01   0.184243E+01   0.000000E+00
POINT_DATA 4
VECTORS velocity float
   0.690251-309   0.690251-309   0.000000E+00
   0.000000E+00   0.000000E+00   0.000000E+00
   0.170000E+01   0.180000E+01   0.000000E+00
   0.190000E+01   0.200000E+01   0.000000E+00
SCALARS volume float 1
LOOKUP_TABLE default
   0.100000E-11
   0.100000E-11
   0.100000E-11
   0.100000E-11
TENSORS stress float
   0.202291E+00   0.134677E+05   0.000000E+00
   0.134677E+05   0.290865E+04   0.000000E+00
   0.000000E+00   0.000000E+00   0.000000E+00
   0.202291E+00   0.302124E+05   0.000000E+00
   0.302124E+05   0.289602E+04   0.000000E+00
   0.000000E+00   0.000000E+00   0.000000E+00
   0.202291E+00   0.529409E+06   0.000000E+00
   0.529409E+06   0.317800E+04   0.000000E+00
   0.000000E+00   0.000000E+00   0.000000E+00
   0.202291E+00   0.602114E+06   0.000000E+00
   0.602114E+06   0.317374E+04   0.000000E+00
   0.000000E+00   0.000000E+00   0.000000E+00
