# vtk DataFile Version 3.0
Particle data
ASCII
DATASET POLYDATA
POINTS 4 float
   0.300344E+01   0.188697E+01   0.000000E+00
   0.305073E+01   0.188697E+01   0.000000E+00
   0.300344E+01   0.184776E+01   0.000000E+00
   0.305073E+01   0.184776E+01   0.000000E+00
POINT_DATA 4
VECTORS velocity float
   0.690251-309   0.690251-309   0.000000E+00
   0.000000E+00   0.000000E+00   0.000000E+00
   0.170000E+01   0.180000E+01   0.000000E+00
   0.190000E+01   0.200000E+01   0.000000E+00
SCALARS volume float 1
LOOKUP_TABLE default
   0.100000E-11
   0.100000E-11
   0.100000E-11
   0.100000E-11
TENSORS stress float
   0.256960E+01   0.103585E+05   0.000000E+00
   0.103585E+05   0.279037E+04   0.000000E+00
   0.000000E+00   0.000000E+00   0.000000E+00
   0.234007E+01   0.238287E+05   0.000000E+00
   0.238287E+05   0.277773E+04   0.000000E+00
   0.000000E+00   0.000000E+00   0.000000E+00
   0.256960E+01   0.526299E+06   0.000000E+00
   0.526299E+06   0.305972E+04   0.000000E+00
   0.000000E+00   0.000000E+00   0.000000E+00
   0.234007E+01   0.595730E+06   0.000000E+00
   0.595730E+06   0.305546E+04   0.000000E+00
   0.000000E+00   0.000000E+00   0.000000E+00
