# vtk DataFile Version 3.0
Particle data
ASCII
DATASET POLYDATA
POINTS 4 float
   0.262756E+01   0.190232E+01   0.000000E+00
   0.267437E+01   0.190232E+01   0.000000E+00
   0.262756E+01   0.186233E+01   0.000000E+00
   0.267437E+01   0.186233E+01   0.000000E+00
POINT_DATA 4
VECTORS velocity float
   0.690251-309   0.690251-309   0.000000E+00
   0.000000E+00   0.000000E+00   0.000000E+00
   0.170000E+01   0.180000E+01   0.000000E+00
   0.190000E+01   0.200000E+01   0.000000E+00
SCALARS volume float 1
LOOKUP_TABLE default
   0.100000E-11
   0.100000E-11
   0.100000E-11
   0.100000E-11
TENSORS stress float
   0.000000E+00   0.000000E+00   0.000000E+00
   0.000000E+00   0.243596E+04   0.000000E+00
   0.000000E+00   0.000000E+00   0.000000E+00
   0.000000E+00   0.000000E+00   0.000000E+00
   0.000000E+00   0.243692E+04   0.000000E+00
   0.000000E+00   0.000000E+00   0.000000E+00
   0.000000E+00   0.511710E+06   0.000000E+00
   0.511710E+06   0.269123E+04   0.000000E+00
   0.000000E+00   0.000000E+00   0.000000E+00
   0.000000E+00   0.565281E+06   0.000000E+00
   0.565281E+06   0.270056E+04   0.000000E+00
   0.000000E+00   0.000000E+00   0.000000E+00
