# vtk DataFile Version 3.0
Particle data
ASCII
DATASET POLYDATA
POINTS 4 float
   0.926082E+00   0.193202E+01   0.000000E+00
   0.971206E+00   0.193202E+01   0.000000E+00
   0.926082E+00   0.189196E+01   0.000000E+00
   0.971206E+00   0.189196E+01   0.000000E+00
POINT_DATA 4
VECTORS velocity float
   0.690251-309   0.690251-309   0.000000E+00
   0.000000E+00   0.000000E+00   0.000000E+00
   0.170000E+01   0.180000E+01   0.000000E+00
   0.190000E+01   0.200000E+01   0.000000E+00
SCALARS volume float 1
LOOKUP_TABLE default
   0.100000E-11
   0.100000E-11
   0.100000E-11
   0.100000E-11
TENSORS stress float
   0.000000E+00   0.000000E+00   0.000000E+00
   0.000000E+00   0.238824E+04   0.000000E+00
   0.000000E+00   0.000000E+00   0.000000E+00
   0.000000E+00   0.657638E+03   0.000000E+00
   0.657638E+03   0.238935E+04   0.000000E+00
   0.000000E+00   0.000000E+00   0.000000E+00
   0.000000E+00   0.420685E+06   0.000000E+00
   0.420685E+06   0.262492E+04   0.000000E+00
   0.000000E+00   0.000000E+00   0.000000E+00
   0.000000E+00   0.450008E+06   0.000000E+00
   0.450008E+06   0.263441E+04   0.000000E+00
   0.000000E+00   0.000000E+00   0.000000E+00
