# vtk DataFile Version 3.0
Particle data
ASCII
DATASET POLYDATA
POINTS 4 float
   0.107311E+01   0.192895E+01   0.000000E+00
   0.112997E+01   0.192895E+01   0.000000E+00
   0.107311E+01   0.188889E+01   0.000000E+00
   0.112997E+01   0.188889E+01   0.000000E+00
POINT_DATA 4
VECTORS velocity float
   0.690251-309   0.690251-309   0.000000E+00
   0.000000E+00   0.000000E+00   0.000000E+00
   0.170000E+01   0.180000E+01   0.000000E+00
   0.190000E+01   0.200000E+01   0.000000E+00
SCALARS volume float 1
LOOKUP_TABLE default
   0.100000E-11
   0.100000E-11
   0.100000E-11
   0.100000E-11
TENSORS stress float
   0.000000E+00   0.000000E+00   0.000000E+00
   0.000000E+00   0.239695E+04   0.000000E+00
   0.000000E+00   0.000000E+00   0.000000E+00
   0.000000E+00   0.263141E+03   0.000000E+00
   0.263141E+03   0.239819E+04   0.000000E+00
   0.000000E+00   0.000000E+00   0.000000E+00
   0.000000E+00   0.439051E+06   0.000000E+00
   0.439051E+06   0.263117E+04   0.000000E+00
   0.000000E+00   0.000000E+00   0.000000E+00
   0.000000E+00   0.470551E+06   0.000000E+00
   0.470551E+06   0.264079E+04   0.000000E+00
   0.000000E+00   0.000000E+00   0.000000E+00
