# vtk DataFile Version 3.0
Particle data
ASCII
DATASET POLYDATA
POINTS 4 float
   0.235068E+01   0.190871E+01   0.000000E+00
   0.239830E+01   0.190871E+01   0.000000E+00
   0.235068E+01   0.186865E+01   0.000000E+00
   0.239830E+01   0.186865E+01   0.000000E+00
POINT_DATA 4
VECTORS velocity float
   0.690251-309   0.690251-309   0.000000E+00
   0.000000E+00   0.000000E+00   0.000000E+00
   0.170000E+01   0.180000E+01   0.000000E+00
   0.190000E+01   0.200000E+01   0.000000E+00
SCALARS volume float 1
LOOKUP_TABLE default
   0.100000E-11
   0.100000E-11
   0.100000E-11
   0.100000E-11
TENSORS stress float
   0.000000E+00   0.000000E+00   0.000000E+00
   0.000000E+00   0.240210E+04   0.000000E+00
   0.000000E+00   0.000000E+00   0.000000E+00
   0.000000E+00   0.000000E+00   0.000000E+00
   0.000000E+00   0.240321E+04   0.000000E+00
   0.000000E+00   0.000000E+00   0.000000E+00
   0.000000E+00   0.500640E+06   0.000000E+00
   0.500640E+06   0.263751E+04   0.000000E+00
   0.000000E+00   0.000000E+00   0.000000E+00
   0.000000E+00   0.548311E+06   0.000000E+00
   0.548311E+06   0.264699E+04   0.000000E+00
   0.000000E+00   0.000000E+00   0.000000E+00
