# vtk DataFile Version 3.0
Particle data
ASCII
DATASET POLYDATA
POINTS 4 float
   0.270689E+01   0.189916E+01   0.000000E+00
   0.275406E+01   0.189916E+01   0.000000E+00
   0.270689E+01   0.185942E+01   0.000000E+00
   0.275406E+01   0.185942E+01   0.000000E+00
POINT_DATA 4
VECTORS velocity float
   0.690251-309   0.690251-309   0.000000E+00
   0.000000E+00   0.000000E+00   0.000000E+00
   0.170000E+01   0.180000E+01   0.000000E+00
   0.190000E+01   0.200000E+01   0.000000E+00
SCALARS volume float 1
LOOKUP_TABLE default
   0.100000E-11
   0.100000E-11
   0.100000E-11
   0.100000E-11
TENSORS stress float
   0.000000E+00   0.761675E+03   0.000000E+00
   0.761675E+03   0.240812E+04   0.000000E+00
   0.000000E+00   0.000000E+00   0.000000E+00
   0.000000E+00   0.165804E+04   0.000000E+00
   0.165804E+04   0.239547E+04   0.000000E+00
   0.000000E+00   0.000000E+00   0.000000E+00
   0.000000E+00   0.516703E+06   0.000000E+00
   0.516703E+06   0.267747E+04   0.000000E+00
   0.000000E+00   0.000000E+00   0.000000E+00
   0.000000E+00   0.573559E+06   0.000000E+00
   0.573559E+06   0.267320E+04   0.000000E+00
   0.000000E+00   0.000000E+00   0.000000E+00
