# vtk DataFile Version 3.0
Particle data
ASCII
DATASET POLYDATA
POINTS 4 float
   0.321352E+01   0.187826E+01   0.000000E+00
   0.326075E+01   0.187826E+01   0.000000E+00
   0.321352E+01   0.183921E+01   0.000000E+00
   0.326075E+01   0.183921E+01   0.000000E+00
POINT_DATA 4
VECTORS velocity float
   0.690251-309   0.690251-309   0.000000E+00
   0.000000E+00   0.000000E+00   0.000000E+00
   0.170000E+01   0.180000E+01   0.000000E+00
   0.190000E+01   0.200000E+01   0.000000E+00
SCALARS volume float 1
LOOKUP_TABLE default
   0.100000E-11
   0.100000E-11
   0.100000E-11
   0.100000E-11
TENSORS stress float
   0.000000E+00   0.139849E+05   0.000000E+00
   0.139849E+05   0.300782E+04   0.000000E+00
   0.000000E+00   0.000000E+00   0.000000E+00
   0.000000E+00   0.337117E+05   0.000000E+00
   0.337117E+05   0.299520E+04   0.000000E+00
   0.000000E+00   0.000000E+00   0.000000E+00
   0.000000E+00   0.529926E+06   0.000000E+00
   0.529926E+06   0.327718E+04   0.000000E+00
   0.000000E+00   0.000000E+00   0.000000E+00
   0.000000E+00   0.605613E+06   0.000000E+00
   0.605613E+06   0.327292E+04   0.000000E+00
   0.000000E+00   0.000000E+00   0.000000E+00
