# vtk DataFile Version 3.0
Particle data
ASCII
DATASET POLYDATA
POINTS 4 float
   0.655818E+00   0.195172E+01   0.000000E+00
   0.710306E+00   0.195172E+01   0.000000E+00
   0.655818E+00   0.191254E+01   0.000000E+00
   0.710306E+00   0.191254E+01   0.000000E+00
POINT_DATA 4
VECTORS velocity float
   0.690251-309   0.690251-309   0.000000E+00
   0.000000E+00   0.000000E+00   0.000000E+00
   0.170000E+01   0.180000E+01   0.000000E+00
   0.190000E+01   0.200000E+01   0.000000E+00
SCALARS volume float 1
LOOKUP_TABLE default
   0.100000E-11
   0.100000E-11
   0.100000E-11
   0.100000E-11
TENSORS stress float
   0.121831E+02   0.000000E+00   0.000000E+00
   0.000000E+00   0.185842E+04   0.000000E+00
   0.000000E+00   0.000000E+00   0.000000E+00
   0.137822E+02   0.127810E+05   0.000000E+00
   0.127810E+05   0.186610E+04   0.000000E+00
   0.000000E+00   0.000000E+00   0.000000E+00
   0.121831E+02   0.415152E+04   0.000000E+00
   0.415152E+04   0.213022E+04   0.000000E+00
   0.000000E+00   0.000000E+00   0.000000E+00
   0.137822E+02   0.286223E+05   0.000000E+00
   0.286223E+05   0.214627E+04   0.000000E+00
   0.000000E+00   0.000000E+00   0.000000E+00
