# vtk DataFile Version 3.0
Particle data
ASCII
DATASET POLYDATA
POINTS 4 float
   0.556448E+00   0.196564E+01   0.000000E+00
   0.610590E+00   0.196564E+01   0.000000E+00
   0.556448E+00   0.192664E+01   0.000000E+00
   0.610590E+00   0.192664E+01   0.000000E+00
POINT_DATA 4
VECTORS velocity float
   0.690251-309   0.690251-309   0.000000E+00
   0.000000E+00   0.000000E+00   0.000000E+00
   0.170000E+01   0.180000E+01   0.000000E+00
   0.190000E+01   0.200000E+01   0.000000E+00
SCALARS volume float 1
LOOKUP_TABLE default
   0.100000E-11
   0.100000E-11
   0.100000E-11
   0.100000E-11
TENSORS stress float
   0.128679E+02   0.567859E+03   0.000000E+00
   0.567859E+03   0.123326E+04   0.000000E+00
   0.000000E+00   0.000000E+00   0.000000E+00
   0.149608E+02   0.117776E+05   0.000000E+00
   0.117776E+05   0.124095E+04   0.000000E+00
   0.000000E+00   0.000000E+00   0.000000E+00
   0.128679E+02   0.121739E+05   0.000000E+00
   0.121739E+05   0.150507E+04   0.000000E+00
   0.000000E+00   0.000000E+00   0.000000E+00
   0.149608E+02   0.276189E+05   0.000000E+00
   0.276189E+05   0.152113E+04   0.000000E+00
   0.000000E+00   0.000000E+00   0.000000E+00
