# vtk DataFile Version 3.0
Particle data
ASCII
DATASET POLYDATA
POINTS 4 float
   0.334337E+01   0.187322E+01   0.000000E+00
   0.339063E+01   0.187322E+01   0.000000E+00
   0.334337E+01   0.183421E+01   0.000000E+00
   0.339063E+01   0.183421E+01   0.000000E+00
POINT_DATA 4
VECTORS velocity float
   0.690251-309   0.690251-309   0.000000E+00
   0.000000E+00   0.000000E+00   0.000000E+00
   0.170000E+01   0.180000E+01   0.000000E+00
   0.190000E+01   0.200000E+01   0.000000E+00
SCALARS volume float 1
LOOKUP_TABLE default
   0.100000E-11
   0.100000E-11
   0.100000E-11
   0.100000E-11
TENSORS stress float
   0.214930E+00   0.141429E+05   0.000000E+00
   0.141429E+05   0.312140E+04   0.000000E+00
   0.000000E+00   0.000000E+00   0.000000E+00
   0.214930E+00   0.370221E+05   0.000000E+00
   0.370221E+05   0.310878E+04   0.000000E+00
   0.000000E+00   0.000000E+00   0.000000E+00
   0.214930E+00   0.530084E+06   0.000000E+00
   0.530084E+06   0.339076E+04   0.000000E+00
   0.000000E+00   0.000000E+00   0.000000E+00
   0.214930E+00   0.608923E+06   0.000000E+00
   0.608923E+06   0.338651E+04   0.000000E+00
   0.000000E+00   0.000000E+00   0.000000E+00
