# vtk DataFile Version 3.0
Particle data
ASCII
DATASET POLYDATA
POINTS 4 float
   0.617942E+00   0.195581E+01   0.000000E+00
   0.672876E+00   0.195581E+01   0.000000E+00
   0.617942E+00   0.191669E+01   0.000000E+00
   0.672876E+00   0.191669E+01   0.000000E+00
POINT_DATA 4
VECTORS velocity float
   0.690251-309   0.690251-309   0.000000E+00
   0.000000E+00   0.000000E+00   0.000000E+00
   0.170000E+01   0.180000E+01   0.000000E+00
   0.190000E+01   0.200000E+01   0.000000E+00
SCALARS volume float 1
LOOKUP_TABLE default
   0.100000E-11
   0.100000E-11
   0.100000E-11
   0.100000E-11
TENSORS stress float
   0.834390E+01   0.000000E+00   0.000000E+00
   0.000000E+00   0.165876E+04   0.000000E+00
   0.000000E+00   0.000000E+00   0.000000E+00
   0.767023E+01   0.110134E+05   0.000000E+00
   0.110134E+05   0.166636E+04   0.000000E+00
   0.000000E+00   0.000000E+00   0.000000E+00
   0.834390E+01   0.560530E+04   0.000000E+00
   0.560530E+04   0.193056E+04   0.000000E+00
   0.000000E+00   0.000000E+00   0.000000E+00
   0.767023E+01   0.268547E+05   0.000000E+00
   0.268547E+05   0.194654E+04   0.000000E+00
   0.000000E+00   0.000000E+00   0.000000E+00
