# vtk DataFile Version 3.0
Particle data
ASCII
DATASET POLYDATA
POINTS 4 float
   0.299988E+01   0.188710E+01   0.000000E+00
   0.304716E+01   0.188710E+01   0.000000E+00
   0.299988E+01   0.184789E+01   0.000000E+00
   0.304716E+01   0.184789E+01   0.000000E+00
POINT_DATA 4
VECTORS velocity float
   0.690251-309   0.690251-309   0.000000E+00
   0.000000E+00   0.000000E+00   0.000000E+00
   0.170000E+01   0.180000E+01   0.000000E+00
   0.190000E+01   0.200000E+01   0.000000E+00
SCALARS volume float 1
LOOKUP_TABLE default
   0.100000E-11
   0.100000E-11
   0.100000E-11
   0.100000E-11
TENSORS stress float
   0.132731E+00   0.136373E+05   0.000000E+00
   0.136373E+05   0.269474E+04   0.000000E+00
   0.000000E+00   0.000000E+00   0.000000E+00
   0.156825E-01   0.236713E+05   0.000000E+00
   0.236713E+05   0.268211E+04   0.000000E+00
   0.000000E+00   0.000000E+00   0.000000E+00
   0.132731E+00   0.529578E+06   0.000000E+00
   0.529578E+06   0.296409E+04   0.000000E+00
   0.000000E+00   0.000000E+00   0.000000E+00
   0.156825E-01   0.595573E+06   0.000000E+00
   0.595573E+06   0.295983E+04   0.000000E+00
   0.000000E+00   0.000000E+00   0.000000E+00
