# vtk DataFile Version 3.0
Particle data
ASCII
DATASET POLYDATA
POINTS 4 float
   0.916086E+00   0.193250E+01   0.000000E+00
   0.961201E+00   0.193250E+01   0.000000E+00
   0.916086E+00   0.189240E+01   0.000000E+00
   0.961201E+00   0.189240E+01   0.000000E+00
POINT_DATA 4
VECTORS velocity float
   0.690251-309   0.690251-309   0.000000E+00
   0.000000E+00   0.000000E+00   0.000000E+00
   0.170000E+01   0.180000E+01   0.000000E+00
   0.190000E+01   0.200000E+01   0.000000E+00
SCALARS volume float 1
LOOKUP_TABLE default
   0.100000E-11
   0.100000E-11
   0.100000E-11
   0.100000E-11
TENSORS stress float
   0.000000E+00   0.000000E+00   0.000000E+00
   0.000000E+00   0.238793E+04   0.000000E+00
   0.000000E+00   0.000000E+00   0.000000E+00
   0.000000E+00   0.129106E+04   0.000000E+00
   0.129106E+04   0.238905E+04   0.000000E+00
   0.000000E+00   0.000000E+00   0.000000E+00
   0.000000E+00   0.417491E+06   0.000000E+00
   0.417491E+06   0.262477E+04   0.000000E+00
   0.000000E+00   0.000000E+00   0.000000E+00
   0.000000E+00   0.446813E+06   0.000000E+00
   0.446813E+06   0.263426E+04   0.000000E+00
   0.000000E+00   0.000000E+00   0.000000E+00
