# vtk DataFile Version 3.0
Particle data
ASCII
DATASET POLYDATA
POINTS 4 float
   0.300820E+01   0.188680E+01   0.000000E+00
   0.305548E+01   0.188680E+01   0.000000E+00
   0.300820E+01   0.184759E+01   0.000000E+00
   0.305548E+01   0.184759E+01   0.000000E+00
POINT_DATA 4
VECTORS velocity float
   0.690251-309   0.690251-309   0.000000E+00
   0.000000E+00   0.000000E+00   0.000000E+00
   0.170000E+01   0.180000E+01   0.000000E+00
   0.190000E+01   0.200000E+01   0.000000E+00
SCALARS volume float 1
LOOKUP_TABLE default
   0.100000E-11
   0.100000E-11
   0.100000E-11
   0.100000E-11
TENSORS stress float
   0.207742E+01   0.105349E+05   0.000000E+00
   0.105349E+05   0.279143E+04   0.000000E+00
   0.000000E+00   0.000000E+00   0.000000E+00
   0.184790E+01   0.240050E+05   0.000000E+00
   0.240050E+05   0.277880E+04   0.000000E+00
   0.000000E+00   0.000000E+00   0.000000E+00
   0.207742E+01   0.526476E+06   0.000000E+00
   0.526476E+06   0.306078E+04   0.000000E+00
   0.000000E+00   0.000000E+00   0.000000E+00
   0.184790E+01   0.595906E+06   0.000000E+00
   0.595906E+06   0.305652E+04   0.000000E+00
   0.000000E+00   0.000000E+00   0.000000E+00
