# vtk DataFile Version 3.0
Particle data
ASCII
DATASET POLYDATA
POINTS 4 float
   0.289542E+01   0.189148E+01   0.000000E+00
   0.294253E+01   0.189148E+01   0.000000E+00
   0.289542E+01   0.185214E+01   0.000000E+00
   0.294253E+01   0.185214E+01   0.000000E+00
POINT_DATA 4
VECTORS velocity float
   0.690251-309   0.690251-309   0.000000E+00
   0.000000E+00   0.000000E+00   0.000000E+00
   0.170000E+01   0.180000E+01   0.000000E+00
   0.190000E+01   0.200000E+01   0.000000E+00
SCALARS volume float 1
LOOKUP_TABLE default
   0.100000E-11
   0.100000E-11
   0.100000E-11
   0.100000E-11
TENSORS stress float
   0.000000E+00   0.106474E+05   0.000000E+00
   0.106474E+05   0.255894E+04   0.000000E+00
   0.000000E+00   0.000000E+00   0.000000E+00
   0.000000E+00   0.164173E+05   0.000000E+00
   0.164173E+05   0.254633E+04   0.000000E+00
   0.000000E+00   0.000000E+00   0.000000E+00
   0.000000E+00   0.526588E+06   0.000000E+00
   0.526588E+06   0.282830E+04   0.000000E+00
   0.000000E+00   0.000000E+00   0.000000E+00
   0.000000E+00   0.588319E+06   0.000000E+00
   0.588319E+06   0.282405E+04   0.000000E+00
   0.000000E+00   0.000000E+00   0.000000E+00
