# vtk DataFile Version 3.0
Particle data
ASCII
DATASET POLYDATA
POINTS 4 float
   0.626131E+00   0.195490E+01   0.000000E+00
   0.681055E+00   0.195490E+01   0.000000E+00
   0.626131E+00   0.191579E+01   0.000000E+00
   0.681055E+00   0.191579E+01   0.000000E+00
POINT_DATA 4
VECTORS velocity float
   0.690251-309   0.690251-309   0.000000E+00
   0.000000E+00   0.000000E+00   0.000000E+00
   0.170000E+01   0.180000E+01   0.000000E+00
   0.190000E+01   0.200000E+01   0.000000E+00
SCALARS volume float 1
LOOKUP_TABLE default
   0.100000E-11
   0.100000E-11
   0.100000E-11
   0.100000E-11
TENSORS stress float
   0.103088E+02   0.000000E+00   0.000000E+00
   0.000000E+00   0.166348E+04   0.000000E+00
   0.000000E+00   0.000000E+00   0.000000E+00
   0.963512E+01   0.107890E+05   0.000000E+00
   0.107890E+05   0.167109E+04   0.000000E+00
   0.000000E+00   0.000000E+00   0.000000E+00
   0.103088E+02   0.538090E+04   0.000000E+00
   0.538090E+04   0.193528E+04   0.000000E+00
   0.000000E+00   0.000000E+00   0.000000E+00
   0.963512E+01   0.266303E+05   0.000000E+00
   0.266303E+05   0.195126E+04   0.000000E+00
   0.000000E+00   0.000000E+00   0.000000E+00
