# vtk DataFile Version 3.0
Particle data
ASCII
DATASET POLYDATA
POINTS 4 float
   0.170043E+01   0.191773E+01   0.000000E+00
   0.175106E+01   0.191773E+01   0.000000E+00
   0.170043E+01   0.187765E+01   0.000000E+00
   0.175106E+01   0.187765E+01   0.000000E+00
POINT_DATA 4
VECTORS velocity float
   0.690251-309   0.690251-309   0.000000E+00
   0.000000E+00   0.000000E+00   0.000000E+00
   0.170000E+01   0.180000E+01   0.000000E+00
   0.190000E+01   0.200000E+01   0.000000E+00
SCALARS volume float 1
LOOKUP_TABLE default
   0.100000E-11
   0.100000E-11
   0.100000E-11
   0.100000E-11
TENSORS stress float
   0.000000E+00   0.000000E+00   0.000000E+00
   0.000000E+00   0.239673E+04   0.000000E+00
   0.000000E+00   0.000000E+00   0.000000E+00
   0.000000E+00   0.000000E+00   0.000000E+00
   0.000000E+00   0.239785E+04   0.000000E+00
   0.000000E+00   0.000000E+00   0.000000E+00
   0.000000E+00   0.478889E+06   0.000000E+00
   0.478889E+06   0.262971E+04   0.000000E+00
   0.000000E+00   0.000000E+00   0.000000E+00
   0.000000E+00   0.520352E+06   0.000000E+00
   0.520352E+06   0.263920E+04   0.000000E+00
   0.000000E+00   0.000000E+00   0.000000E+00
