# vtk DataFile Version 3.0
Particle data
ASCII
DATASET POLYDATA
POINTS 4 float
   0.788015E+00   0.193891E+01   0.000000E+00
   0.842830E+00   0.193891E+01   0.000000E+00
   0.788015E+00   0.189895E+01   0.000000E+00
   0.842830E+00   0.189895E+01   0.000000E+00
POINT_DATA 4
VECTORS velocity float
   0.690251-309   0.690251-309   0.000000E+00
   0.000000E+00   0.000000E+00   0.000000E+00
   0.170000E+01   0.180000E+01   0.000000E+00
   0.190000E+01   0.200000E+01   0.000000E+00
SCALARS volume float 1
LOOKUP_TABLE default
   0.100000E-11
   0.100000E-11
   0.100000E-11
   0.100000E-11
TENSORS stress float
   0.000000E+00   0.000000E+00   0.000000E+00
   0.000000E+00   0.230548E+04   0.000000E+00
   0.000000E+00   0.000000E+00   0.000000E+00
   0.000000E+00   0.661400E+04   0.000000E+00
   0.661400E+04   0.230757E+04   0.000000E+00
   0.000000E+00   0.000000E+00   0.000000E+00
   0.000000E+00   0.308400E+06   0.000000E+00
   0.308400E+06   0.257305E+04   0.000000E+00
   0.000000E+00   0.000000E+00   0.000000E+00
   0.000000E+00   0.332133E+06   0.000000E+00
   0.332133E+06   0.258351E+04   0.000000E+00
   0.000000E+00   0.000000E+00   0.000000E+00
