# vtk DataFile Version 3.0
Particle data
ASCII
DATASET POLYDATA
POINTS 4 float
   0.287848E+01   0.189239E+01   0.000000E+00
   0.292427E+01   0.189239E+01   0.000000E+00
   0.287848E+01   0.185296E+01   0.000000E+00
   0.292427E+01   0.185296E+01   0.000000E+00
POINT_DATA 4
VECTORS velocity float
   0.690251-309   0.690251-309   0.000000E+00
   0.000000E+00   0.000000E+00   0.000000E+00
   0.170000E+01   0.180000E+01   0.000000E+00
   0.190000E+01   0.200000E+01   0.000000E+00
SCALARS volume float 1
LOOKUP_TABLE default
   0.100000E-11
   0.100000E-11
   0.100000E-11
   0.100000E-11
TENSORS stress float
   0.000000E+00   0.992456E+04   0.000000E+00
   0.992456E+04   0.254007E+04   0.000000E+00
   0.000000E+00   0.000000E+00   0.000000E+00
   0.000000E+00   0.150908E+05   0.000000E+00
   0.150908E+05   0.252749E+04   0.000000E+00
   0.000000E+00   0.000000E+00   0.000000E+00
   0.000000E+00   0.525865E+06   0.000000E+00
   0.525865E+06   0.280942E+04   0.000000E+00
   0.000000E+00   0.000000E+00   0.000000E+00
   0.000000E+00   0.586992E+06   0.000000E+00
   0.586992E+06   0.280521E+04   0.000000E+00
   0.000000E+00   0.000000E+00   0.000000E+00
