# vtk DataFile Version 3.0
Particle data
ASCII
DATASET POLYDATA
POINTS 4 float
   0.308766E+01   0.188345E+01   0.000000E+00
   0.313424E+01   0.188345E+01   0.000000E+00
   0.308766E+01   0.184429E+01   0.000000E+00
   0.313424E+01   0.184429E+01   0.000000E+00
POINT_DATA 4
VECTORS velocity float
   0.690251-309   0.690251-309   0.000000E+00
   0.000000E+00   0.000000E+00   0.000000E+00
   0.170000E+01   0.180000E+01   0.000000E+00
   0.190000E+01   0.200000E+01   0.000000E+00
SCALARS volume float 1
LOOKUP_TABLE default
   0.100000E-11
   0.100000E-11
   0.100000E-11
   0.100000E-11
TENSORS stress float
   0.000000E+00   0.130580E+05   0.000000E+00
   0.130580E+05   0.286615E+04   0.000000E+00
   0.000000E+00   0.000000E+00   0.000000E+00
   0.000000E+00   0.286473E+05   0.000000E+00
   0.286473E+05   0.285356E+04   0.000000E+00
   0.000000E+00   0.000000E+00   0.000000E+00
   0.000000E+00   0.528999E+06   0.000000E+00
   0.528999E+06   0.313550E+04   0.000000E+00
   0.000000E+00   0.000000E+00   0.000000E+00
   0.000000E+00   0.600549E+06   0.000000E+00
   0.600549E+06   0.313128E+04   0.000000E+00
   0.000000E+00   0.000000E+00   0.000000E+00
