# vtk DataFile Version 3.0
Particle data
ASCII
DATASET POLYDATA
POINTS 4 float
   0.614110E+00   0.195625E+01   0.000000E+00
   0.669048E+00   0.195625E+01   0.000000E+00
   0.614110E+00   0.191713E+01   0.000000E+00
   0.669048E+00   0.191713E+01   0.000000E+00
POINT_DATA 4
VECTORS velocity float
   0.690251-309   0.690251-309   0.000000E+00
   0.000000E+00   0.000000E+00   0.000000E+00
   0.170000E+01   0.180000E+01   0.000000E+00
   0.190000E+01   0.200000E+01   0.000000E+00
SCALARS volume float 1
LOOKUP_TABLE default
   0.100000E-11
   0.100000E-11
   0.100000E-11
   0.100000E-11
TENSORS stress float
   0.753846E+01   0.000000E+00   0.000000E+00
   0.000000E+00   0.165646E+04   0.000000E+00
   0.000000E+00   0.000000E+00   0.000000E+00
   0.686479E+01   0.111089E+05   0.000000E+00
   0.111089E+05   0.166406E+04   0.000000E+00
   0.000000E+00   0.000000E+00   0.000000E+00
   0.753846E+01   0.570086E+04   0.000000E+00
   0.570086E+04   0.192826E+04   0.000000E+00
   0.000000E+00   0.000000E+00   0.000000E+00
   0.686479E+01   0.269503E+05   0.000000E+00
   0.269503E+05   0.194424E+04   0.000000E+00
   0.000000E+00   0.000000E+00   0.000000E+00
