# vtk DataFile Version 3.0
Particle data
ASCII
DATASET POLYDATA
POINTS 4 float
   0.688853E+00   0.194729E+01   0.000000E+00
   0.743571E+00   0.194729E+01   0.000000E+00
   0.688853E+00   0.190787E+01   0.000000E+00
   0.743571E+00   0.190787E+01   0.000000E+00
POINT_DATA 4
VECTORS velocity float
   0.690251-309   0.690251-309   0.000000E+00
   0.000000E+00   0.000000E+00   0.000000E+00
   0.170000E+01   0.180000E+01   0.000000E+00
   0.190000E+01   0.200000E+01   0.000000E+00
SCALARS volume float 1
LOOKUP_TABLE default
   0.100000E-11
   0.100000E-11
   0.100000E-11
   0.100000E-11
TENSORS stress float
   0.000000E+00   0.000000E+00   0.000000E+00
   0.000000E+00   0.192792E+04   0.000000E+00
   0.000000E+00   0.000000E+00   0.000000E+00
   0.000000E+00   0.113510E+05   0.000000E+00
   0.113510E+05   0.193561E+04   0.000000E+00
   0.000000E+00   0.000000E+00   0.000000E+00
   0.000000E+00   0.165887E+04   0.000000E+00
   0.165887E+04   0.219972E+04   0.000000E+00
   0.000000E+00   0.000000E+00   0.000000E+00
   0.000000E+00   0.271923E+05   0.000000E+00
   0.271923E+05   0.221578E+04   0.000000E+00
   0.000000E+00   0.000000E+00   0.000000E+00
