# vtk DataFile Version 3.0
Particle data
ASCII
DATASET POLYDATA
POINTS 4 float
   0.612968E+00   0.195638E+01   0.000000E+00
   0.667907E+00   0.195638E+01   0.000000E+00
   0.612968E+00   0.191726E+01   0.000000E+00
   0.667907E+00   0.191726E+01   0.000000E+00
POINT_DATA 4
VECTORS velocity float
   0.690251-309   0.690251-309   0.000000E+00
   0.000000E+00   0.000000E+00   0.000000E+00
   0.170000E+01   0.180000E+01   0.000000E+00
   0.190000E+01   0.200000E+01   0.000000E+00
SCALARS volume float 1
LOOKUP_TABLE default
   0.100000E-11
   0.100000E-11
   0.100000E-11
   0.100000E-11
TENSORS stress float
   0.733504E+01   0.000000E+00   0.000000E+00
   0.000000E+00   0.165575E+04   0.000000E+00
   0.000000E+00   0.000000E+00   0.000000E+00
   0.666137E+01   0.111362E+05   0.000000E+00
   0.111362E+05   0.166336E+04   0.000000E+00
   0.000000E+00   0.000000E+00   0.000000E+00
   0.733504E+01   0.572812E+04   0.000000E+00
   0.572812E+04   0.192756E+04   0.000000E+00
   0.000000E+00   0.000000E+00   0.000000E+00
   0.666137E+01   0.269775E+05   0.000000E+00
   0.269775E+05   0.194354E+04   0.000000E+00
   0.000000E+00   0.000000E+00   0.000000E+00
