# vtk DataFile Version 3.0
Particle data
ASCII
DATASET POLYDATA
POINTS 4 float
    -1.946366555066E-05     4.999999887927E-03     0.000000000000E+00
    -1.946366555066E-05     4.999999887927E-03     0.000000000000E+00
     3.970588067797E+07     4.191176294230E+07     0.000000000000E+00
     4.852940971530E+07     5.029411552876E+07     0.000000000000E+00
POINT_DATA 4
VECTORS velocity float
    -1.190036499224E-21     1.041285995782E-09     0.000000000000E+00
    -1.190036499224E-21     1.041285995782E-09     0.000000000000E+00
     9.004168916295E-02     1.000441149331E-01     0.000000000000E+00
     1.100509534214E-01     1.200529380150E-01     0.000000000000E+00
SCALARS volume float 1
LOOKUP_TABLE default
     9.999999960042E-13
     5.000999650168E-09
     1.660339783457E+01
     1.284081223634E-01
TENSORS stress float
     6.901132956212-310    -1.994551444328E-10     0.000000000000E+00
    -1.994551444328E-10     6.901132956212-310     0.000000000000E+00
     0.000000000000E+00     0.000000000000E+00     0.000000000000E+00
     0.000000000000E+00     7.999999801241E-02     0.000000000000E+00
     7.999999801241E-02     6.999999843538E-02     0.000000000000E+00
     0.000000000000E+00     0.000000000000E+00     0.000000000000E+00
     4.116575062972E+07     2.464011314378E+06     0.000000000000E+00
     2.464011314378E+06     4.545005852223E+07     0.000000000000E+00
     0.000000000000E+00     0.000000000000E+00     0.000000000000E+00
     5.028330403165E+07     2.035495275446E+06     0.000000000000E+00
     2.035495275446E+06     5.456742295642E+07     0.000000000000E+00
     0.000000000000E+00     0.000000000000E+00     0.000000000000E+00
