# vtk DataFile Version 3.0
Particle data
ASCII
DATASET POLYDATA
POINTS 4 float
   0.271630E+01   0.189886E+01   0.000000E+00
   0.276347E+01   0.189886E+01   0.000000E+00
   0.271630E+01   0.185912E+01   0.000000E+00
   0.276347E+01   0.185912E+01   0.000000E+00
POINT_DATA 4
VECTORS velocity float
   0.690251-309   0.690251-309   0.000000E+00
   0.000000E+00   0.000000E+00   0.000000E+00
   0.170000E+01   0.180000E+01   0.000000E+00
   0.190000E+01   0.200000E+01   0.000000E+00
SCALARS volume float 1
LOOKUP_TABLE default
   0.100000E-11
   0.100000E-11
   0.100000E-11
   0.100000E-11
TENSORS stress float
   0.000000E+00   0.131245E+04   0.000000E+00
   0.131245E+04   0.240935E+04   0.000000E+00
   0.000000E+00   0.000000E+00   0.000000E+00
   0.000000E+00   0.220882E+04   0.000000E+00
   0.220882E+04   0.239671E+04   0.000000E+00
   0.000000E+00   0.000000E+00   0.000000E+00
   0.000000E+00   0.517253E+06   0.000000E+00
   0.517253E+06   0.267870E+04   0.000000E+00
   0.000000E+00   0.000000E+00   0.000000E+00
   0.000000E+00   0.574110E+06   0.000000E+00
   0.574110E+06   0.267443E+04   0.000000E+00
   0.000000E+00   0.000000E+00   0.000000E+00
