# vtk DataFile Version 3.0
Particle data
ASCII
DATASET POLYDATA
POINTS 4 float
   0.335995E+01   0.187266E+01   0.000000E+00
   0.340702E+01   0.187266E+01   0.000000E+00
   0.335995E+01   0.183364E+01   0.000000E+00
   0.340702E+01   0.183364E+01   0.000000E+00
POINT_DATA 4
VECTORS velocity float
   0.690251-309   0.690251-309   0.000000E+00
   0.000000E+00   0.000000E+00   0.000000E+00
   0.170000E+01   0.180000E+01   0.000000E+00
   0.190000E+01   0.200000E+01   0.000000E+00
SCALARS volume float 1
LOOKUP_TABLE default
   0.100000E-11
   0.100000E-11
   0.100000E-11
   0.100000E-11
TENSORS stress float
   0.000000E+00   0.142014E+05   0.000000E+00
   0.142014E+05   0.315415E+04   0.000000E+00
   0.000000E+00   0.000000E+00   0.000000E+00
   0.118022E+00   0.381443E+05   0.000000E+00
   0.381443E+05   0.314154E+04   0.000000E+00
   0.000000E+00   0.000000E+00   0.000000E+00
   0.000000E+00   0.530142E+06   0.000000E+00
   0.530142E+06   0.342350E+04   0.000000E+00
   0.000000E+00   0.000000E+00   0.000000E+00
   0.118022E+00   0.610046E+06   0.000000E+00
   0.610046E+06   0.341927E+04   0.000000E+00
   0.000000E+00   0.000000E+00   0.000000E+00
