# vtk DataFile Version 3.0
Particle data
ASCII
DATASET POLYDATA
POINTS 4 float
   0.600666E+00   0.195780E+01   0.000000E+00
   0.655602E+00   0.195780E+01   0.000000E+00
   0.600666E+00   0.191868E+01   0.000000E+00
   0.655602E+00   0.191868E+01   0.000000E+00
POINT_DATA 4
VECTORS velocity float
   0.690251-309   0.690251-309   0.000000E+00
   0.000000E+00   0.000000E+00   0.000000E+00
   0.170000E+01   0.180000E+01   0.000000E+00
   0.190000E+01   0.200000E+01   0.000000E+00
SCALARS volume float 1
LOOKUP_TABLE default
   0.100000E-11
   0.100000E-11
   0.100000E-11
   0.100000E-11
TENSORS stress float
   0.736060E+01   0.000000E+00   0.000000E+00
   0.000000E+00   0.164738E+04   0.000000E+00
   0.000000E+00   0.000000E+00   0.000000E+00
   0.668693E+01   0.113914E+05   0.000000E+00
   0.113914E+05   0.165499E+04   0.000000E+00
   0.000000E+00   0.000000E+00   0.000000E+00
   0.736060E+01   0.598335E+04   0.000000E+00
   0.598335E+04   0.191919E+04   0.000000E+00
   0.000000E+00   0.000000E+00   0.000000E+00
   0.668693E+01   0.272328E+05   0.000000E+00
   0.272328E+05   0.193517E+04   0.000000E+00
   0.000000E+00   0.000000E+00   0.000000E+00
