# vtk DataFile Version 3.0
Particle data
ASCII
DATASET POLYDATA
POINTS 4 float
   0.341001E+01   0.187053E+01   0.000000E+00
   0.345724E+01   0.187053E+01   0.000000E+00
   0.341001E+01   0.183152E+01   0.000000E+00
   0.345724E+01   0.183152E+01   0.000000E+00
POINT_DATA 4
VECTORS velocity float
   0.690251-309   0.690251-309   0.000000E+00
   0.000000E+00   0.000000E+00   0.000000E+00
   0.170000E+01   0.180000E+01   0.000000E+00
   0.190000E+01   0.200000E+01   0.000000E+00
SCALARS volume float 1
LOOKUP_TABLE default
   0.100000E-11
   0.100000E-11
   0.100000E-11
   0.100000E-11
TENSORS stress float
   0.307743E-01   0.124055E+05   0.000000E+00
   0.124055E+05   0.323800E+04   0.000000E+00
   0.000000E+00   0.000000E+00   0.000000E+00
   0.000000E+00   0.390758E+05   0.000000E+00
   0.390758E+05   0.322538E+04   0.000000E+00
   0.000000E+00   0.000000E+00   0.000000E+00
   0.307743E-01   0.528346E+06   0.000000E+00
   0.528346E+06   0.350735E+04   0.000000E+00
   0.000000E+00   0.000000E+00   0.000000E+00
   0.000000E+00   0.610977E+06   0.000000E+00
   0.610977E+06   0.350310E+04   0.000000E+00
   0.000000E+00   0.000000E+00   0.000000E+00
