# vtk DataFile Version 3.0
Particle data
ASCII
DATASET POLYDATA
POINTS 4 float
   0.278934E+01   0.189589E+01   0.000000E+00
   0.283599E+01   0.189589E+01   0.000000E+00
   0.278934E+01   0.185634E+01   0.000000E+00
   0.283599E+01   0.185634E+01   0.000000E+00
POINT_DATA 4
VECTORS velocity float
   0.690251-309   0.690251-309   0.000000E+00
   0.000000E+00   0.000000E+00   0.000000E+00
   0.170000E+01   0.180000E+01   0.000000E+00
   0.190000E+01   0.200000E+01   0.000000E+00
SCALARS volume float 1
LOOKUP_TABLE default
   0.100000E-11
   0.100000E-11
   0.100000E-11
   0.100000E-11
TENSORS stress float
   0.000000E+00   0.589811E+04   0.000000E+00
   0.589811E+04   0.246706E+04   0.000000E+00
   0.000000E+00   0.000000E+00   0.000000E+00
   0.000000E+00   0.878103E+04   0.000000E+00
   0.878103E+04   0.245446E+04   0.000000E+00
   0.000000E+00   0.000000E+00   0.000000E+00
   0.000000E+00   0.521839E+06   0.000000E+00
   0.521839E+06   0.273641E+04   0.000000E+00
   0.000000E+00   0.000000E+00   0.000000E+00
   0.000000E+00   0.580682E+06   0.000000E+00
   0.580682E+06   0.273218E+04   0.000000E+00
   0.000000E+00   0.000000E+00   0.000000E+00
