# vtk DataFile Version 3.0
Particle data
ASCII
DATASET POLYDATA
POINTS 4 float
   0.756708E+00   0.194176E+01   0.000000E+00
   0.811480E+00   0.194176E+01   0.000000E+00
   0.756708E+00   0.190218E+01   0.000000E+00
   0.811480E+00   0.190218E+01   0.000000E+00
POINT_DATA 4
VECTORS velocity float
   0.690251-309   0.690251-309   0.000000E+00
   0.000000E+00   0.000000E+00   0.000000E+00
   0.170000E+01   0.180000E+01   0.000000E+00
   0.190000E+01   0.200000E+01   0.000000E+00
SCALARS volume float 1
LOOKUP_TABLE default
   0.100000E-11
   0.100000E-11
   0.100000E-11
   0.100000E-11
TENSORS stress float
   0.416542E+01   0.000000E+00   0.000000E+00
   0.000000E+00   0.230019E+04   0.000000E+00
   0.000000E+00   0.000000E+00   0.000000E+00
   0.588473E+01   0.902989E+04   0.000000E+00
   0.902989E+04   0.230787E+04   0.000000E+00
   0.000000E+00   0.000000E+00   0.000000E+00
   0.416542E+01   0.000000E+00   0.000000E+00
   0.000000E+00   0.257200E+04   0.000000E+00
   0.000000E+00   0.000000E+00   0.000000E+00
   0.588473E+01   0.248712E+05   0.000000E+00
   0.248712E+05   0.258804E+04   0.000000E+00
   0.000000E+00   0.000000E+00   0.000000E+00
