# vtk DataFile Version 3.0
Particle data
ASCII
DATASET POLYDATA
POINTS 4 float
   0.589668E+00   0.195925E+01   0.000000E+00
   0.644080E+00   0.195925E+01   0.000000E+00
   0.589668E+00   0.192019E+01   0.000000E+00
   0.644080E+00   0.192019E+01   0.000000E+00
POINT_DATA 4
VECTORS velocity float
   0.690251-309   0.690251-309   0.000000E+00
   0.000000E+00   0.000000E+00   0.000000E+00
   0.170000E+01   0.180000E+01   0.000000E+00
   0.190000E+01   0.200000E+01   0.000000E+00
SCALARS volume float 1
LOOKUP_TABLE default
   0.100000E-11
   0.100000E-11
   0.100000E-11
   0.100000E-11
TENSORS stress float
   0.000000E+00   0.000000E+00   0.000000E+00
   0.000000E+00   0.134009E+04   0.000000E+00
   0.000000E+00   0.000000E+00   0.000000E+00
   0.000000E+00   0.116829E+05   0.000000E+00
   0.116829E+05   0.134779E+04   0.000000E+00
   0.000000E+00   0.000000E+00   0.000000E+00
   0.000000E+00   0.108837E+05   0.000000E+00
   0.108837E+05   0.161190E+04   0.000000E+00
   0.000000E+00   0.000000E+00   0.000000E+00
   0.000000E+00   0.275243E+05   0.000000E+00
   0.275243E+05   0.162796E+04   0.000000E+00
   0.000000E+00   0.000000E+00   0.000000E+00
