# vtk DataFile Version 3.0
Particle data
ASCII
DATASET POLYDATA
POINTS 4 float
   0.293512E+01   0.189005E+01   0.000000E+00
   0.298238E+01   0.189005E+01   0.000000E+00
   0.293512E+01   0.185071E+01   0.000000E+00
   0.298238E+01   0.185071E+01   0.000000E+00
POINT_DATA 4
VECTORS velocity float
   0.690251-309   0.690251-309   0.000000E+00
   0.000000E+00   0.000000E+00   0.000000E+00
   0.170000E+01   0.180000E+01   0.000000E+00
   0.190000E+01   0.200000E+01   0.000000E+00
SCALARS volume float 1
LOOKUP_TABLE default
   0.100000E-11
   0.100000E-11
   0.100000E-11
   0.100000E-11
TENSORS stress float
   0.000000E+00   0.117133E+05   0.000000E+00
   0.117133E+05   0.258619E+04   0.000000E+00
   0.000000E+00   0.000000E+00   0.000000E+00
   0.000000E+00   0.182294E+05   0.000000E+00
   0.182294E+05   0.257356E+04   0.000000E+00
   0.000000E+00   0.000000E+00   0.000000E+00
   0.000000E+00   0.527654E+06   0.000000E+00
   0.527654E+06   0.285554E+04   0.000000E+00
   0.000000E+00   0.000000E+00   0.000000E+00
   0.000000E+00   0.590131E+06   0.000000E+00
   0.590131E+06   0.285128E+04   0.000000E+00
   0.000000E+00   0.000000E+00   0.000000E+00
