# vtk DataFile Version 3.0
Particle data
ASCII
DATASET POLYDATA
POINTS 4 float
   0.278477E+01   0.189615E+01   0.000000E+00
   0.283089E+01   0.189615E+01   0.000000E+00
   0.278477E+01   0.185656E+01   0.000000E+00
   0.283089E+01   0.185656E+01   0.000000E+00
POINT_DATA 4
VECTORS velocity float
   0.690251-309   0.690251-309   0.000000E+00
   0.000000E+00   0.000000E+00   0.000000E+00
   0.170000E+01   0.180000E+01   0.000000E+00
   0.190000E+01   0.200000E+01   0.000000E+00
SCALARS volume float 1
LOOKUP_TABLE default
   0.100000E-11
   0.100000E-11
   0.100000E-11
   0.100000E-11
TENSORS stress float
   0.000000E+00   0.560961E+04   0.000000E+00
   0.560961E+04   0.246300E+04   0.000000E+00
   0.000000E+00   0.000000E+00   0.000000E+00
   0.000000E+00   0.835506E+04   0.000000E+00
   0.835506E+04   0.245041E+04   0.000000E+00
   0.000000E+00   0.000000E+00   0.000000E+00
   0.000000E+00   0.521551E+06   0.000000E+00
   0.521551E+06   0.273235E+04   0.000000E+00
   0.000000E+00   0.000000E+00   0.000000E+00
   0.000000E+00   0.580256E+06   0.000000E+00
   0.580256E+06   0.272813E+04   0.000000E+00
   0.000000E+00   0.000000E+00   0.000000E+00
