# vtk DataFile Version 3.0
Particle data
ASCII
DATASET POLYDATA
POINTS 4 float
   0.840776E+00   0.193572E+01   0.000000E+00
   0.896334E+00   0.193572E+01   0.000000E+00
   0.840776E+00   0.189577E+01   0.000000E+00
   0.896334E+00   0.189577E+01   0.000000E+00
POINT_DATA 4
VECTORS velocity float
   0.690251-309   0.690251-309   0.000000E+00
   0.000000E+00   0.000000E+00   0.000000E+00
   0.170000E+01   0.180000E+01   0.000000E+00
   0.190000E+01   0.200000E+01   0.000000E+00
SCALARS volume float 1
LOOKUP_TABLE default
   0.100000E-11
   0.100000E-11
   0.100000E-11
   0.100000E-11
TENSORS stress float
   0.000000E+00   0.000000E+00   0.000000E+00
   0.000000E+00   0.235090E+04   0.000000E+00
   0.000000E+00   0.000000E+00   0.000000E+00
   0.000000E+00   0.310001E+04   0.000000E+00
   0.310001E+04   0.235138E+04   0.000000E+00
   0.000000E+00   0.000000E+00   0.000000E+00
   0.000000E+00   0.383956E+06   0.000000E+00
   0.383956E+06   0.260056E+04   0.000000E+00
   0.000000E+00   0.000000E+00   0.000000E+00
   0.000000E+00   0.409901E+06   0.000000E+00
   0.409901E+06   0.260942E+04   0.000000E+00
   0.000000E+00   0.000000E+00   0.000000E+00
